<?xml version="1.0" encoding="UTF-8"?>

<!-- generated on 2024-09-28 19:24:05 by Eclipse SUMO sumo Version 1.20.0
<configuration xmlns:xsi="http://www.w3.org/2001/XMLSchema-instance" xsi:noNamespaceSchemaLocation="http://sumo.dlr.de/xsd/sumoConfiguration.xsd">

    <input>
        <net-file value="D:\sumo_27\sumo-rl-main\sumo-rl-main\sumo_rl\nets\3x3grid\3x3Grid2lanes.net.xml"/>
        <route-files value="D:\sumo_27\sumo-rl-main\sumo-rl-main\sumo_rl\nets\3x3grid\routes14000.rou.xml"/>
    </input>

    <output>
        <tripinfo-output value="tripinfo.xml"/>
    </output>

    <time>
        <begin value="0"/>
        <end value="260000"/>
    </time>

    <processing>
        <time-to-teleport value="-1"/>
    </processing>

</configuration>
-->

<tripinfos xmlns:xsi="http://www.w3.org/2001/XMLSchema-instance" xsi:noNamespaceSchemaLocation="http://sumo.dlr.de/xsd/tripinfo_file.xsd">
    <tripinfo id="0" depart="0.00" departLane="2Ni_0" departPos="5.10" departSpeed="0.00" departDelay="0.00" arrival="59.00" arrivalLane="0Wo_0" arrivalPos="236.40" arrivalSpeed="13.55" duration="59.00" routeLength="776.73" waitingTime="0.00" waitingCount="0" stopTime="0.00" timeLoss="5.40" rerouteNo="0" devices="tripinfo_0" vType="DEFAULT_VEHTYPE" speedFactor="1.06" vaporized=""/>
    <tripinfo id="3" depart="6.00" departLane="6Si_0" departPos="5.10" departSpeed="0.00" departDelay="0.00" arrival="75.00" arrivalLane="0Si_0" arrivalPos="122.80" arrivalSpeed="14.86" duration="69.00" routeLength="531.30" waitingTime="23.00" waitingCount="1" stopTime="0.00" timeLoss="33.64" rerouteNo="0" devices="tripinfo_3" vType="DEFAULT_VEHTYPE" speedFactor="1.08" vaporized=""/>
    <tripinfo id="11" depart="22.00" departLane="7Si_0" departPos="5.10" departSpeed="0.00" departDelay="0.00" arrival="76.00" arrivalLane="1Si_0" arrivalPos="122.80" arrivalSpeed="14.25" duration="54.00" routeLength="531.30" waitingTime="7.00" waitingCount="1" stopTime="0.00" timeLoss="16.47" rerouteNo="0" devices="tripinfo_11" vType="DEFAULT_VEHTYPE" speedFactor="1.03" vaporized=""/>
    <tripinfo id="33" depart="66.00" departLane="0Wi_0" departPos="5.10" departSpeed="0.00" departDelay="0.00" arrival="104.00" arrivalLane="2Wi_0" arrivalPos="122.80" arrivalSpeed="16.10" duration="38.00" routeLength="531.30" waitingTime="0.00" waitingCount="0" stopTime="0.00" timeLoss="5.32" rerouteNo="0" devices="tripinfo_33" vType="DEFAULT_VEHTYPE" speedFactor="1.17" vaporized=""/>
    <tripinfo id="26" depart="52.00" departLane="6Wi_0" departPos="5.10" departSpeed="0.00" departDelay="0.00" arrival="105.00" arrivalLane="8Wi_2" arrivalPos="122.80" arrivalSpeed="12.68" duration="53.00" routeLength="531.30" waitingTime="2.00" waitingCount="1" stopTime="0.00" timeLoss="11.17" rerouteNo="0" devices="tripinfo_26" vType="DEFAULT_VEHTYPE" speedFactor="0.92" vaporized=""/>
    <tripinfo id="10" depart="20.00" departLane="6Si_0" departPos="5.10" departSpeed="0.00" departDelay="0.00" arrival="110.00" arrivalLane="8Eo_0" arrivalPos="236.40" arrivalSpeed="13.89" duration="90.00" routeLength="776.73" waitingTime="21.00" waitingCount="2" stopTime="0.00" timeLoss="37.89" rerouteNo="0" devices="tripinfo_10" vType="DEFAULT_VEHTYPE" speedFactor="1.09" vaporized=""/>
    <tripinfo id="23" depart="46.00" departLane="0Wi_0" departPos="5.10" departSpeed="0.00" departDelay="0.00" arrival="117.00" arrivalLane="5Wi_2" arrivalPos="122.80" arrivalSpeed="12.25" duration="71.00" routeLength="660.44" waitingTime="5.00" waitingCount="1" stopTime="0.00" timeLoss="17.09" rerouteNo="0" devices="tripinfo_23" vType="DEFAULT_VEHTYPE" speedFactor="0.89" vaporized=""/>
    <tripinfo id="41" depart="82.00" departLane="2Ni_0" departPos="5.10" departSpeed="0.00" departDelay="0.00" arrival="132.00" arrivalLane="8Ni_1" arrivalPos="122.80" arrivalSpeed="13.00" duration="50.00" routeLength="531.30" waitingTime="0.00" waitingCount="0" stopTime="0.00" timeLoss="9.44" rerouteNo="0" devices="tripinfo_41" vType="DEFAULT_VEHTYPE" speedFactor="0.96" vaporized=""/>
    <tripinfo id="37" depart="74.00" departLane="0Ni_0" departPos="5.10" departSpeed="0.00" departDelay="0.00" arrival="135.00" arrivalLane="7Wi_2" arrivalPos="122.80" arrivalSpeed="15.19" duration="61.00" routeLength="678.61" waitingTime="4.00" waitingCount="1" stopTime="0.00" timeLoss="19.20" rerouteNo="0" devices="tripinfo_37" vType="DEFAULT_VEHTYPE" speedFactor="1.18" vaporized=""/>
    <tripinfo id="13" depart="26.00" departLane="5Ei_0" departPos="5.10" departSpeed="0.00" departDelay="0.00" arrival="143.00" arrivalLane="3Ei_0" arrivalPos="122.80" arrivalSpeed="15.21" duration="117.00" routeLength="531.30" waitingTime="71.00" waitingCount="1" stopTime="0.00" timeLoss="82.43" rerouteNo="0" devices="tripinfo_13" vType="DEFAULT_VEHTYPE" speedFactor="1.12" vaporized=""/>
    <tripinfo id="6" depart="12.00" departLane="8Ei_0" departPos="5.10" departSpeed="0.00" departDelay="0.00" arrival="152.00" arrivalLane="6Wo_0" arrivalPos="236.40" arrivalSpeed="13.91" duration="140.00" routeLength="794.90" waitingTime="72.00" waitingCount="1" stopTime="0.00" timeLoss="84.52" rerouteNo="0" devices="tripinfo_6" vType="DEFAULT_VEHTYPE" speedFactor="1.05" vaporized=""/>
    <tripinfo id="2" depart="5.00" departLane="8Ei_0" departPos="5.10" departSpeed="0.00" departDelay="1.00" arrival="153.00" arrivalLane="1No_0" arrivalPos="236.40" arrivalSpeed="13.94" duration="148.00" routeLength="905.87" waitingTime="56.00" waitingCount="2" stopTime="0.00" timeLoss="82.71" rerouteNo="0" devices="tripinfo_2" vType="DEFAULT_VEHTYPE" speedFactor="1.01" vaporized=""/>
    <tripinfo id="8" depart="16.00" departLane="2Ei_0" departPos="5.10" departSpeed="0.00" departDelay="0.00" arrival="153.00" arrivalLane="3Si_0" arrivalPos="122.80" arrivalSpeed="12.43" duration="137.00" routeLength="942.27" waitingTime="51.00" waitingCount="1" stopTime="0.00" timeLoss="64.53" rerouteNo="0" devices="tripinfo_8" vType="DEFAULT_VEHTYPE" speedFactor="0.94" vaporized=""/>
    <tripinfo id="51" depart="102.00" departLane="2Ei_0" departPos="5.10" departSpeed="0.00" departDelay="0.00" arrival="160.00" arrivalLane="3Ni_2" arrivalPos="122.80" arrivalSpeed="15.37" duration="58.00" routeLength="678.61" waitingTime="4.00" waitingCount="1" stopTime="0.00" timeLoss="15.58" rerouteNo="0" devices="tripinfo_51" vType="DEFAULT_VEHTYPE" speedFactor="1.17" vaporized=""/>
    <tripinfo id="45" depart="90.00" departLane="2Ni_0" departPos="5.10" departSpeed="0.00" departDelay="0.00" arrival="161.00" arrivalLane="0Wo_2" arrivalPos="236.40" arrivalSpeed="14.31" duration="71.00" routeLength="776.73" waitingTime="5.00" waitingCount="1" stopTime="0.00" timeLoss="19.50" rerouteNo="0" devices="tripinfo_45" vType="DEFAULT_VEHTYPE" speedFactor="1.09" vaporized=""/>
    <tripinfo id="4" depart="8.00" departLane="8Ei_0" departPos="5.10" departSpeed="0.00" departDelay="0.00" arrival="162.00" arrivalLane="0Wo_0" arrivalPos="236.40" arrivalSpeed="13.26" duration="154.00" routeLength="1074.04" waitingTime="51.00" waitingCount="2" stopTime="0.00" timeLoss="78.87" rerouteNo="0" devices="tripinfo_4" vType="DEFAULT_VEHTYPE" speedFactor="1.03" vaporized=""/>
    <tripinfo id="1" depart="2.00" departLane="8Ei_0" departPos="5.10" departSpeed="0.00" departDelay="0.00" arrival="165.00" arrivalLane="0No_0" arrivalPos="236.40" arrivalSpeed="11.78" duration="163.00" routeLength="1055.87" waitingTime="57.00" waitingCount="2" stopTime="0.00" timeLoss="81.20" rerouteNo="0" devices="tripinfo_1" vType="DEFAULT_VEHTYPE" speedFactor="0.94" vaporized=""/>
    <tripinfo id="12" depart="24.00" departLane="6Si_0" departPos="5.10" departSpeed="0.00" departDelay="0.00" arrival="169.00" arrivalLane="1Si_0" arrivalPos="122.80" arrivalSpeed="13.73" duration="145.00" routeLength="660.44" waitingTime="76.00" waitingCount="3" stopTime="0.00" timeLoss="99.33" rerouteNo="0" devices="tripinfo_12" vType="DEFAULT_VEHTYPE" speedFactor="1.05" vaporized=""/>
    <tripinfo id="27" depart="55.00" departLane="6Wi_0" departPos="5.10" departSpeed="0.00" departDelay="1.00" arrival="170.00" arrivalLane="2Si_1" arrivalPos="122.80" arrivalSpeed="13.05" duration="115.00" routeLength="828.61" waitingTime="39.00" waitingCount="1" stopTime="0.00" timeLoss="52.01" rerouteNo="0" devices="tripinfo_27" vType="DEFAULT_VEHTYPE" speedFactor="0.95" vaporized=""/>
    <tripinfo id="14" depart="28.00" departLane="6Si_0" departPos="5.10" departSpeed="0.00" departDelay="0.00" arrival="184.00" arrivalLane="0Ei_2" arrivalPos="122.80" arrivalSpeed="13.10" duration="156.00" routeLength="807.75" waitingTime="67.00" waitingCount="5" stopTime="0.00" timeLoss="97.13" rerouteNo="0" devices="tripinfo_14" vType="DEFAULT_VEHTYPE" speedFactor="0.99" vaporized=""/>
    <tripinfo id="73" depart="146.00" departLane="6Si_0" departPos="5.10" departSpeed="0.00" departDelay="0.00" arrival="187.00" arrivalLane="0Si_0" arrivalPos="122.80" arrivalSpeed="14.44" duration="41.00" routeLength="531.30" waitingTime="0.00" waitingCount="0" stopTime="0.00" timeLoss="4.76" rerouteNo="0" devices="tripinfo_73" vType="DEFAULT_VEHTYPE" speedFactor="1.06" vaporized=""/>
    <tripinfo id="43" depart="86.00" departLane="7Si_0" departPos="5.10" departSpeed="0.00" departDelay="0.00" arrival="190.00" arrivalLane="2Wi_0" arrivalPos="122.80" arrivalSpeed="13.42" duration="104.00" routeLength="663.13" waitingTime="43.00" waitingCount="2" stopTime="0.00" timeLoss="57.51" rerouteNo="0" devices="tripinfo_43" vType="DEFAULT_VEHTYPE" speedFactor="1.04" vaporized=""/>
    <tripinfo id="16" depart="32.00" departLane="6Si_0" departPos="5.10" departSpeed="0.00" departDelay="0.00" arrival="192.00" arrivalLane="2Eo_0" arrivalPos="236.40" arrivalSpeed="10.97" duration="160.00" routeLength="1055.87" waitingTime="49.00" waitingCount="3" stopTime="0.00" timeLoss="73.18" rerouteNo="0" devices="tripinfo_16" vType="DEFAULT_VEHTYPE" speedFactor="0.88" vaporized=""/>
    <tripinfo id="47" depart="94.00" departLane="8Ei_0" departPos="5.10" departSpeed="0.00" departDelay="0.00" arrival="195.00" arrivalLane="2No_0" arrivalPos="236.40" arrivalSpeed="12.06" duration="101.00" routeLength="776.73" waitingTime="23.00" waitingCount="2" stopTime="0.00" timeLoss="38.64" rerouteNo="0" devices="tripinfo_47" vType="DEFAULT_VEHTYPE" speedFactor="0.90" vaporized=""/>
    <tripinfo id="9" depart="18.00" departLane="6Wi_0" departPos="5.10" departSpeed="0.00" departDelay="0.00" arrival="197.00" arrivalLane="5Si_2" arrivalPos="122.80" arrivalSpeed="11.19" duration="179.00" routeLength="678.61" waitingTime="104.00" waitingCount="2" stopTime="0.00" timeLoss="121.69" rerouteNo="0" devices="tripinfo_9" vType="DEFAULT_VEHTYPE" speedFactor="0.86" vaporized=""/>
    <tripinfo id="7" depart="14.00" departLane="2Ni_0" departPos="5.10" departSpeed="0.00" departDelay="0.00" arrival="221.00" arrivalLane="7Ei_0" arrivalPos="122.80" arrivalSpeed="11.51" duration="207.00" routeLength="663.13" waitingTime="137.00" waitingCount="2" stopTime="0.00" timeLoss="152.97" rerouteNo="0" devices="tripinfo_7" vType="DEFAULT_VEHTYPE" speedFactor="0.89" vaporized=""/>
    <tripinfo id="39" depart="78.00" departLane="1Ni_0" departPos="5.10" departSpeed="0.00" departDelay="0.00" arrival="222.00" arrivalLane="8Wi_2" arrivalPos="122.80" arrivalSpeed="11.51" duration="144.00" routeLength="678.61" waitingTime="74.00" waitingCount="2" stopTime="0.00" timeLoss="89.46" rerouteNo="0" devices="tripinfo_39" vType="DEFAULT_VEHTYPE" speedFactor="0.90" vaporized=""/>
    <tripinfo id="25" depart="50.00" departLane="2Ni_0" departPos="5.10" departSpeed="0.00" departDelay="0.00" arrival="223.00" arrivalLane="7Wi_2" arrivalPos="122.80" arrivalSpeed="11.88" duration="173.00" routeLength="957.75" waitingTime="72.00" waitingCount="3" stopTime="0.00" timeLoss="93.34" rerouteNo="0" devices="tripinfo_25" vType="DEFAULT_VEHTYPE" speedFactor="0.87" vaporized=""/>
    <tripinfo id="42" depart="84.00" departLane="0Wi_0" departPos="5.10" departSpeed="0.00" departDelay="0.00" arrival="223.00" arrivalLane="2No_2" arrivalPos="236.40" arrivalSpeed="14.76" duration="139.00" routeLength="792.21" waitingTime="75.00" waitingCount="1" stopTime="0.00" timeLoss="86.71" rerouteNo="0" devices="tripinfo_42" vType="DEFAULT_VEHTYPE" speedFactor="1.09" vaporized=""/>
    <tripinfo id="21" depart="42.00" departLane="2Ni_0" departPos="5.10" departSpeed="0.00" departDelay="0.00" arrival="224.00" arrivalLane="8Wi_2" arrivalPos="122.80" arrivalSpeed="12.98" duration="182.00" routeLength="807.75" waitingTime="100.00" waitingCount="3" stopTime="0.00" timeLoss="123.81" rerouteNo="0" devices="tripinfo_21" vType="DEFAULT_VEHTYPE" speedFactor="1.01" vaporized=""/>
    <tripinfo id="32" depart="64.00" departLane="1Ni_0" departPos="5.10" departSpeed="0.00" departDelay="0.00" arrival="231.00" arrivalLane="5Eo_2" arrivalPos="236.40" arrivalSpeed="13.16" duration="167.00" routeLength="771.35" waitingTime="87.00" waitingCount="3" stopTime="0.00" timeLoss="111.31" rerouteNo="0" devices="tripinfo_32" vType="DEFAULT_VEHTYPE" speedFactor="1.01" vaporized=""/>
    <tripinfo id="29" depart="58.00" departLane="2Ni_0" departPos="5.10" departSpeed="0.00" departDelay="0.00" arrival="232.00" arrivalLane="8Eo_2" arrivalPos="236.40" arrivalSpeed="11.96" duration="174.00" routeLength="792.21" waitingTime="96.00" waitingCount="2" stopTime="0.00" timeLoss="112.10" rerouteNo="0" devices="tripinfo_29" vType="DEFAULT_VEHTYPE" speedFactor="0.93" vaporized=""/>
    <tripinfo id="20" depart="40.00" departLane="0Ni_0" departPos="5.10" departSpeed="0.00" departDelay="0.00" arrival="233.00" arrivalLane="6Ei_1" arrivalPos="122.80" arrivalSpeed="7.99" duration="193.00" routeLength="792.27" waitingTime="108.00" waitingCount="4" stopTime="0.00" timeLoss="136.72" rerouteNo="0" devices="tripinfo_20" vType="DEFAULT_VEHTYPE" speedFactor="1.02" vaporized=""/>
    <tripinfo id="40" depart="81.00" departLane="1Ni_0" departPos="5.10" departSpeed="0.00" departDelay="1.00" arrival="233.00" arrivalLane="5Eo_2" arrivalPos="236.40" arrivalSpeed="13.46" duration="152.00" routeLength="771.35" waitingTime="70.00" waitingCount="2" stopTime="0.00" timeLoss="97.41" rerouteNo="0" devices="tripinfo_40" vType="DEFAULT_VEHTYPE" speedFactor="1.03" vaporized=""/>
    <tripinfo id="81" depart="162.00" departLane="0Ni_0" departPos="5.10" departSpeed="0.00" departDelay="0.00" arrival="233.00" arrivalLane="6Ni_0" arrivalPos="122.80" arrivalSpeed="13.45" duration="71.00" routeLength="531.30" waitingTime="23.00" waitingCount="1" stopTime="0.00" timeLoss="32.34" rerouteNo="0" devices="tripinfo_81" vType="DEFAULT_VEHTYPE" speedFactor="1.00" vaporized=""/>
    <tripinfo id="49" depart="98.00" departLane="0Ni_0" departPos="5.10" departSpeed="0.00" departDelay="0.00" arrival="242.00" arrivalLane="8Wi_1" arrivalPos="122.80" arrivalSpeed="6.24" duration="144.00" routeLength="807.75" waitingTime="51.00" waitingCount="3" stopTime="0.00" timeLoss="75.33" rerouteNo="0" devices="tripinfo_49" vType="DEFAULT_VEHTYPE" speedFactor="0.85" vaporized=""/>
    <tripinfo id="38" depart="76.00" departLane="2Ni_0" departPos="5.10" departSpeed="0.00" departDelay="0.00" arrival="247.00" arrivalLane="6Ei_1" arrivalPos="122.80" arrivalSpeed="14.65" duration="171.00" routeLength="813.13" waitingTime="88.00" waitingCount="3" stopTime="0.00" timeLoss="117.64" rerouteNo="0" devices="tripinfo_38" vType="DEFAULT_VEHTYPE" speedFactor="1.10" vaporized=""/>
    <tripinfo id="86" depart="172.00" departLane="0Wi_0" departPos="5.10" departSpeed="0.00" departDelay="0.00" arrival="247.00" arrivalLane="8Wi_1" arrivalPos="122.80" arrivalSpeed="5.77" duration="75.00" routeLength="810.44" waitingTime="3.00" waitingCount="1" stopTime="0.00" timeLoss="16.48" rerouteNo="0" devices="tripinfo_86" vType="DEFAULT_VEHTYPE" speedFactor="1.00" vaporized=""/>
    <tripinfo id="18" depart="36.00" departLane="2Ei_0" departPos="5.10" departSpeed="0.00" departDelay="0.00" arrival="251.00" arrivalLane="3Ei_2" arrivalPos="122.80" arrivalSpeed="12.50" duration="215.00" routeLength="660.44" waitingTime="138.00" waitingCount="4" stopTime="0.00" timeLoss="163.64" rerouteNo="0" devices="tripinfo_18" vType="DEFAULT_VEHTYPE" speedFactor="0.94" vaporized=""/>
    <tripinfo id="5" depart="10.00" departLane="0Ni_0" departPos="5.10" departSpeed="0.00" departDelay="0.00" arrival="252.00" arrivalLane="8Eo_1" arrivalPos="236.40" arrivalSpeed="11.23" duration="242.00" routeLength="1071.35" waitingTime="124.00" waitingCount="3" stopTime="0.00" timeLoss="148.61" rerouteNo="0" devices="tripinfo_5" vType="DEFAULT_VEHTYPE" speedFactor="0.83" vaporized=""/>
    <tripinfo id="48" depart="96.00" departLane="8Si_0" departPos="5.10" departSpeed="0.00" departDelay="0.00" arrival="252.00" arrivalLane="1Si_0" arrivalPos="122.80" arrivalSpeed="11.51" duration="156.00" routeLength="660.44" waitingTime="81.00" waitingCount="2" stopTime="0.00" timeLoss="100.91" rerouteNo="0" devices="tripinfo_48" vType="DEFAULT_VEHTYPE" speedFactor="0.88" vaporized=""/>
    <tripinfo id="69" depart="138.00" departLane="8Si_0" departPos="5.10" departSpeed="0.00" departDelay="0.00" arrival="253.00" arrivalLane="1Si_0" arrivalPos="122.80" arrivalSpeed="13.39" duration="115.00" routeLength="660.44" waitingTime="47.00" waitingCount="1" stopTime="0.00" timeLoss="68.24" rerouteNo="0" devices="tripinfo_69" vType="DEFAULT_VEHTYPE" speedFactor="1.02" vaporized=""/>
    <tripinfo id="80" depart="160.00" departLane="2Ni_0" departPos="5.10" departSpeed="0.00" departDelay="0.00" arrival="253.00" arrivalLane="6Ei_1" arrivalPos="122.80" arrivalSpeed="13.58" duration="93.00" routeLength="813.13" waitingTime="20.00" waitingCount="2" stopTime="0.00" timeLoss="35.71" rerouteNo="0" devices="tripinfo_80" vType="DEFAULT_VEHTYPE" speedFactor="1.03" vaporized=""/>
    <tripinfo id="17" depart="34.00" departLane="7Si_0" departPos="5.10" departSpeed="0.00" departDelay="0.00" arrival="256.00" arrivalLane="0No_0" arrivalPos="236.40" arrivalSpeed="12.06" duration="222.00" routeLength="924.04" waitingTime="134.00" waitingCount="2" stopTime="0.00" timeLoss="150.76" rerouteNo="0" devices="tripinfo_17" vType="DEFAULT_VEHTYPE" speedFactor="0.94" vaporized=""/>
    <tripinfo id="60" depart="120.00" departLane="8Ei_0" departPos="5.10" departSpeed="0.00" departDelay="0.00" arrival="256.00" arrivalLane="0Si_0" arrivalPos="122.80" arrivalSpeed="14.18" duration="136.00" routeLength="792.27" waitingTime="65.00" waitingCount="2" stopTime="0.00" timeLoss="82.97" rerouteNo="0" devices="tripinfo_60" vType="DEFAULT_VEHTYPE" speedFactor="1.08" vaporized=""/>
    <tripinfo id="75" depart="150.00" departLane="1Ni_0" departPos="5.10" departSpeed="0.00" departDelay="0.00" arrival="256.00" arrivalLane="3Wo_1" arrivalPos="236.40" arrivalSpeed="13.29" duration="106.00" routeLength="776.73" waitingTime="32.00" waitingCount="1" stopTime="0.00" timeLoss="48.33" rerouteNo="0" devices="tripinfo_75" vType="DEFAULT_VEHTYPE" speedFactor="0.98" vaporized=""/>
    <tripinfo id="59" depart="118.00" departLane="7Si_0" departPos="5.10" departSpeed="0.00" departDelay="0.00" arrival="257.00" arrivalLane="3Wo_0" arrivalPos="236.40" arrivalSpeed="12.92" duration="139.00" routeLength="792.21" waitingTime="64.00" waitingCount="2" stopTime="0.00" timeLoss="79.39" rerouteNo="0" devices="tripinfo_59" vType="DEFAULT_VEHTYPE" speedFactor="0.97" vaporized=""/>
    <tripinfo id="28" depart="56.00" departLane="7Si_0" departPos="5.10" departSpeed="0.00" departDelay="0.00" arrival="258.00" arrivalLane="0No_0" arrivalPos="236.40" arrivalSpeed="15.57" duration="202.00" routeLength="924.04" waitingTime="123.00" waitingCount="2" stopTime="0.00" timeLoss="142.25" rerouteNo="0" devices="tripinfo_28" vType="DEFAULT_VEHTYPE" speedFactor="1.13" vaporized=""/>
    <tripinfo id="22" depart="44.00" departLane="8Ei_0" departPos="5.10" departSpeed="0.00" departDelay="0.00" arrival="259.00" arrivalLane="0Si_0" arrivalPos="122.80" arrivalSpeed="13.32" duration="215.00" routeLength="792.27" waitingTime="136.00" waitingCount="3" stopTime="0.00" timeLoss="156.33" rerouteNo="0" devices="tripinfo_22" vType="DEFAULT_VEHTYPE" speedFactor="0.97" vaporized=""/>
    <tripinfo id="85" depart="170.00" departLane="8Ei_0" departPos="5.10" departSpeed="0.00" departDelay="0.00" arrival="259.00" arrivalLane="6Ei_0" arrivalPos="122.80" arrivalSpeed="13.04" duration="89.00" routeLength="531.30" waitingTime="39.00" waitingCount="1" stopTime="0.00" timeLoss="49.62" rerouteNo="0" devices="tripinfo_85" vType="DEFAULT_VEHTYPE" speedFactor="0.98" vaporized=""/>
    <tripinfo id="24" depart="48.00" departLane="8Ei_0" departPos="5.10" departSpeed="0.00" departDelay="0.00" arrival="260.00" arrivalLane="6Wo_0" arrivalPos="236.40" arrivalSpeed="11.18" duration="212.00" routeLength="794.90" waitingTime="126.00" waitingCount="2" stopTime="0.00" timeLoss="142.44" rerouteNo="0" devices="tripinfo_24" vType="DEFAULT_VEHTYPE" speedFactor="0.83" vaporized=""/>
    <tripinfo id="31" depart="62.00" departLane="8Si_0" departPos="5.10" departSpeed="0.00" departDelay="0.00" arrival="261.00" arrivalLane="0Si_0" arrivalPos="122.80" arrivalSpeed="15.82" duration="199.00" routeLength="810.44" waitingTime="125.00" waitingCount="2" stopTime="0.00" timeLoss="147.80" rerouteNo="0" devices="tripinfo_31" vType="DEFAULT_VEHTYPE" speedFactor="1.15" vaporized=""/>
    <tripinfo id="64" depart="128.00" departLane="5Ei_0" departPos="5.10" departSpeed="0.00" departDelay="0.00" arrival="261.00" arrivalLane="3Si_0" arrivalPos="122.80" arrivalSpeed="12.80" duration="133.00" routeLength="792.27" waitingTime="53.00" waitingCount="2" stopTime="0.00" timeLoss="71.94" rerouteNo="0" devices="tripinfo_64" vType="DEFAULT_VEHTYPE" speedFactor="0.94" vaporized=""/>
    <tripinfo id="30" depart="60.00" departLane="2Ei_0" departPos="5.10" departSpeed="0.00" departDelay="0.00" arrival="263.00" arrivalLane="3Si_0" arrivalPos="122.80" arrivalSpeed="15.79" duration="203.00" routeLength="942.27" waitingTime="107.00" waitingCount="4" stopTime="0.00" timeLoss="144.87" rerouteNo="0" devices="tripinfo_30" vType="DEFAULT_VEHTYPE" speedFactor="1.18" vaporized=""/>
    <tripinfo id="53" depart="106.00" departLane="5Ei_0" departPos="5.10" departSpeed="0.00" departDelay="0.00" arrival="266.00" arrivalLane="6Wo_0" arrivalPos="236.40" arrivalSpeed="15.06" duration="160.00" routeLength="924.04" waitingTime="71.00" waitingCount="3" stopTime="0.00" timeLoss="98.69" rerouteNo="0" devices="tripinfo_53" vType="DEFAULT_VEHTYPE" speedFactor="1.10" vaporized=""/>
    <tripinfo id="19" depart="39.00" departLane="2Ei_0" departPos="5.10" departSpeed="0.00" departDelay="1.00" arrival="267.00" arrivalLane="3Wo_1" arrivalPos="236.40" arrivalSpeed="15.14" duration="228.00" routeLength="924.04" waitingTime="137.00" waitingCount="3" stopTime="0.00" timeLoss="169.66" rerouteNo="0" devices="tripinfo_19" vType="DEFAULT_VEHTYPE" speedFactor="1.16" vaporized=""/>
    <tripinfo id="52" depart="104.00" departLane="2Ni_0" departPos="5.10" departSpeed="0.00" departDelay="0.00" arrival="268.00" arrivalLane="3Wo_2" arrivalPos="236.40" arrivalSpeed="13.98" duration="164.00" routeLength="926.73" waitingTime="80.00" waitingCount="2" stopTime="0.00" timeLoss="97.54" rerouteNo="0" devices="tripinfo_52" vType="DEFAULT_VEHTYPE" speedFactor="1.02" vaporized=""/>
    <tripinfo id="113" depart="226.00" departLane="5Ei_0" departPos="5.10" departSpeed="0.00" departDelay="0.00" arrival="269.00" arrivalLane="3Ei_0" arrivalPos="122.80" arrivalSpeed="13.60" duration="43.00" routeLength="531.30" waitingTime="0.00" waitingCount="0" stopTime="0.00" timeLoss="4.89" rerouteNo="0" devices="tripinfo_113" vType="DEFAULT_VEHTYPE" speedFactor="1.01" vaporized=""/>
    <tripinfo id="15" depart="30.00" departLane="5Ei_0" departPos="5.10" departSpeed="0.00" departDelay="0.00" arrival="270.00" arrivalLane="6So_2" arrivalPos="236.40" arrivalSpeed="11.65" duration="240.00" routeLength="921.35" waitingTime="145.00" waitingCount="3" stopTime="0.00" timeLoss="167.54" rerouteNo="0" devices="tripinfo_15" vType="DEFAULT_VEHTYPE" speedFactor="0.93" vaporized=""/>
    <tripinfo id="46" depart="92.00" departLane="2Ei_0" departPos="5.10" departSpeed="0.00" departDelay="0.00" arrival="272.00" arrivalLane="3Wo_1" arrivalPos="236.40" arrivalSpeed="13.70" duration="180.00" routeLength="924.04" waitingTime="81.00" waitingCount="4" stopTime="0.00" timeLoss="113.13" rerouteNo="0" devices="tripinfo_46" vType="DEFAULT_VEHTYPE" speedFactor="1.00" vaporized=""/>
    <tripinfo id="50" depart="100.00" departLane="7Si_0" departPos="5.10" departSpeed="0.00" departDelay="0.00" arrival="275.00" arrivalLane="2Si_2" arrivalPos="122.80" arrivalSpeed="11.78" duration="175.00" routeLength="660.44" waitingTime="95.00" waitingCount="3" stopTime="0.00" timeLoss="119.17" rerouteNo="0" devices="tripinfo_50" vType="DEFAULT_VEHTYPE" speedFactor="0.85" vaporized=""/>
    <tripinfo id="35" depart="71.00" departLane="7Si_0" departPos="5.10" departSpeed="0.00" departDelay="1.00" arrival="280.00" arrivalLane="5Eo_0" arrivalPos="236.40" arrivalSpeed="14.16" duration="209.00" routeLength="755.87" waitingTime="129.00" waitingCount="3" stopTime="0.00" timeLoss="155.52" rerouteNo="0" devices="tripinfo_35" vType="DEFAULT_VEHTYPE" speedFactor="1.02" vaporized=""/>
    <tripinfo id="83" depart="166.00" departLane="6Si_0" departPos="5.10" departSpeed="0.00" departDelay="0.00" arrival="286.00" arrivalLane="0Si_0" arrivalPos="122.80" arrivalSpeed="12.92" duration="120.00" routeLength="531.30" waitingTime="70.00" waitingCount="1" stopTime="0.00" timeLoss="80.00" rerouteNo="0" devices="tripinfo_83" vType="DEFAULT_VEHTYPE" speedFactor="0.97" vaporized=""/>
    <tripinfo id="67" depart="134.00" departLane="6Si_0" departPos="5.10" departSpeed="0.00" departDelay="0.00" arrival="287.00" arrivalLane="2Wi_1" arrivalPos="122.80" arrivalSpeed="12.38" duration="153.00" routeLength="792.27" waitingTime="74.00" waitingCount="2" stopTime="0.00" timeLoss="90.00" rerouteNo="0" devices="tripinfo_67" vType="DEFAULT_VEHTYPE" speedFactor="0.91" vaporized=""/>
    <tripinfo id="119" depart="238.00" departLane="7Si_0" departPos="5.10" departSpeed="0.00" departDelay="0.00" arrival="290.00" arrivalLane="1Si_2" arrivalPos="122.80" arrivalSpeed="14.75" duration="52.00" routeLength="531.30" waitingTime="2.00" waitingCount="1" stopTime="0.00" timeLoss="15.43" rerouteNo="0" devices="tripinfo_119" vType="DEFAULT_VEHTYPE" speedFactor="1.07" vaporized=""/>
    <tripinfo id="34" depart="68.00" departLane="7Si_0" departPos="5.10" departSpeed="0.00" departDelay="0.00" arrival="294.00" arrivalLane="2No_0" arrivalPos="236.40" arrivalSpeed="13.26" duration="226.00" routeLength="924.04" waitingTime="135.00" waitingCount="3" stopTime="0.00" timeLoss="159.08" rerouteNo="0" devices="tripinfo_34" vType="DEFAULT_VEHTYPE" speedFactor="0.99" vaporized=""/>
    <tripinfo id="54" depart="108.00" departLane="3Wi_0" departPos="5.10" departSpeed="0.00" departDelay="0.00" arrival="301.00" arrivalLane="2Si_1" arrivalPos="122.80" arrivalSpeed="7.98" duration="193.00" routeLength="678.61" waitingTime="128.00" waitingCount="2" stopTime="0.00" timeLoss="143.90" rerouteNo="0" devices="tripinfo_54" vType="DEFAULT_VEHTYPE" speedFactor="1.00" vaporized=""/>
    <tripinfo id="72" depart="144.00" departLane="3Wi_0" departPos="5.10" departSpeed="0.00" departDelay="0.00" arrival="301.00" arrivalLane="8Ni_2" arrivalPos="122.80" arrivalSpeed="9.23" duration="157.00" routeLength="663.13" waitingTime="88.00" waitingCount="2" stopTime="0.00" timeLoss="105.84" rerouteNo="0" devices="tripinfo_72" vType="DEFAULT_VEHTYPE" speedFactor="0.94" vaporized=""/>
    <tripinfo id="36" depart="72.00" departLane="0Wi_0" departPos="5.10" departSpeed="0.00" departDelay="0.00" arrival="302.00" arrivalLane="5Si_1" arrivalPos="122.80" arrivalSpeed="5.82" duration="230.00" routeLength="957.75" waitingTime="132.00" waitingCount="3" stopTime="0.00" timeLoss="159.11" rerouteNo="0" devices="tripinfo_36" vType="DEFAULT_VEHTYPE" speedFactor="0.97" vaporized=""/>
    <tripinfo id="63" depart="126.00" departLane="3Wi_0" departPos="5.10" departSpeed="0.00" departDelay="0.00" arrival="306.00" arrivalLane="2Si_1" arrivalPos="122.80" arrivalSpeed="5.24" duration="180.00" routeLength="678.61" waitingTime="110.00" waitingCount="2" stopTime="0.00" timeLoss="130.37" rerouteNo="0" devices="tripinfo_63" vType="DEFAULT_VEHTYPE" speedFactor="0.99" vaporized=""/>
    <tripinfo id="65" depart="130.00" departLane="6Wi_0" departPos="5.10" departSpeed="0.00" departDelay="0.00" arrival="311.00" arrivalLane="8Eo_0" arrivalPos="236.40" arrivalSpeed="11.19" duration="181.00" routeLength="794.90" waitingTime="100.00" waitingCount="2" stopTime="0.00" timeLoss="115.86" rerouteNo="0" devices="tripinfo_65" vType="DEFAULT_VEHTYPE" speedFactor="0.88" vaporized=""/>
    <tripinfo id="109" depart="218.00" departLane="3Wi_0" departPos="5.10" departSpeed="0.00" departDelay="0.00" arrival="312.00" arrivalLane="5Wi_0" arrivalPos="122.80" arrivalSpeed="12.87" duration="94.00" routeLength="531.30" waitingTime="44.00" waitingCount="1" stopTime="0.00" timeLoss="53.42" rerouteNo="0" devices="tripinfo_109" vType="DEFAULT_VEHTYPE" speedFactor="0.96" vaporized=""/>
    <tripinfo id="82" depart="164.00" departLane="0Wi_0" departPos="5.10" departSpeed="0.00" departDelay="0.00" arrival="315.00" arrivalLane="5Ni_0" arrivalPos="122.80" arrivalSpeed="5.60" duration="151.00" routeLength="663.13" waitingTime="87.00" waitingCount="2" stopTime="0.00" timeLoss="103.93" rerouteNo="0" devices="tripinfo_82" vType="DEFAULT_VEHTYPE" speedFactor="1.02" vaporized=""/>
    <tripinfo id="57" depart="114.00" departLane="2Ni_0" departPos="5.10" departSpeed="0.00" departDelay="0.00" arrival="325.00" arrivalLane="7Ei_1" arrivalPos="122.80" arrivalSpeed="9.64" duration="211.00" routeLength="663.13" waitingTime="148.00" waitingCount="2" stopTime="0.00" timeLoss="168.81" rerouteNo="0" devices="tripinfo_57" vType="DEFAULT_VEHTYPE" speedFactor="1.14" vaporized=""/>